
300 atoms
200 bonds
100 angles

2 atom types
1 bond types
1 angle types

-18 18 xlo xhi
-18 18 ylo yhi
-15.5884572681199 15.5884572681199 zlo zhi
0.0 18.0 0.0 xy xz yz

Masses

1 16.0000
2  1.0100

Pair Coeffs

1 0.155394259321224000 3.16555789
2 0 0

Bond Coeffs

1 450.000000 1.0

Angle Coeffs

1   55.000000 109.47

Atoms

1 1 1 -0.8476 6.33760294278 8.75450995424 7.34118427243
2 1 2 0.4238 6.30108751729 9.73506900313 7.14838755216
3 1 2 0.4238 7.00550766647 8.32057459767 6.73653281383
4 2 1 -0.8476 11.4524080802 -10.1524948324 -6.68511213902
5 2 2 0.4238 12.2918974297 -10.5387646685 -6.3029430066
6 2 2 0.4238 10.9419481792 -10.8691555605 -7.16032587017
7 3 1 -0.8476 6.27384963179 -9.77564590188 -9.7497523953
8 3 2 0.4238 6.25311893431 -8.81514756527 -10.0272648879
9 3 2 0.4238 5.37124548413 -10.182651561 -9.88993850764
10 4 1 -0.8476 -14.9860988987 9.18967562998 -8.97700928326
11 4 2 0.4238 -14.3689148659 9.14816628365 -8.19128614893
12 4 2 0.4238 -14.719820634 8.49669736054 -9.64699212174
13 5 1 -0.8476 -0.590839492726 -5.87022252426 -0.337586252238
14 5 2 0.4238 -1.41215296837 -5.39997654392 -0.0146111870988
15 5 2 0.4238 -0.843570933904 -6.76093415347 -0.715421682316
16 6 1 -0.8476 -10.2428499868 3.73834983528 13.3500783185
17 6 2 0.4238 -10.8974306437 3.98459799804 14.0648412205
18 6 2 0.4238 -10.0669850178 2.75451183854 13.3837578204
19 7 1 -0.8476 -0.753634869614 10.3127846935 6.86120959765
20 7 2 0.4238 -1.33145170229 9.52682606258 7.08120218481
21 7 2 0.4238 -0.483540917063 10.774756685 7.70597650981
22 8 1 -0.8476 -5.85343458994 -12.2876258504 -5.22158612411
23 8 2 0.4238 -5.31545850161 -11.5197127304 -5.56928019737
24 8 2 0.4238 -5.74534629506 -13.0732356832 -5.83079389742
25 9 1 -0.8476 4.85842713712 -14.6326032569 -2.24904412494
26 9 2 0.4238 4.22304211261 -14.0023806278 -2.69525630365
27 9 2 0.4238 4.43331594012 -15.0064266462 -1.42470405933
28 10 1 -0.8476 -9.06607582513 1.28572049232 12.9079334302
29 10 2 0.4238 -9.11074566581 1.46429499512 11.9250215561
30 10 2 0.4238 -8.11020880711 1.27419664072 13.2015070065
31 11 1 -0.8476 -0.759184124661 10.772605988 3.87214836597
32 11 2 0.4238 -0.466152907709 10.4701918185 4.77916455984
33 11 2 0.4238 -1.57243977812 11.3479587478 3.95923707929
34 12 1 -0.8476 -16.6058229145 -3.25742052909 -4.75199691199
35 12 2 0.4238 -16.7922780999 -3.80462454267 -3.93602985911
36 12 2 0.4238 -16.5320993291 -2.29327622129 -4.497064398
37 13 1 -0.8476 -20.1984209753 -2.85192724057 -11.9344705255
38 13 2 0.4238 -20.9810224795 -2.49524783712 -11.4242600898
39 13 2 0.4238 -20.077382403 -3.82199279419 -11.7239414641
40 14 1 -0.8476 -13.0254258063 14.2236121418 -12.9043827745
41 14 2 0.4238 -13.4816161125 13.418727634 -13.2839237258
42 14 2 0.4238 -12.0898925874 14.2724549405 -13.2542284223
43 15 1 -0.8476 2.67050598282 -13.3721580192 -3.84107340324
44 15 2 0.4238 2.09818298351 -14.0461997115 -4.30810036329
45 15 2 0.4238 2.18897504987 -12.4966515644 -3.80086882289
46 16 1 -0.8476 -17.064142206 -3.04940503216 -15.0593855753
47 16 2 0.4238 -17.8618463989 -2.89050818597 -14.4776469631
48 16 2 0.4238 -17.341096376953008 -3.021089150870001 -16.019851398739785
49 17 1 -0.8476 18.6366479653 -2.69050396568 4.64614024018
50 17 2 0.4238 18.2739791111 -3.52881303126 5.05321420485
51 17 2 0.4238 19.6360928557 -2.71364212535 4.6701097336
52 18 1 -0.8476 4.65910460817 -3.93415416037 8.75497631833
53 18 2 0.4238 4.97860832272 -4.65610653928 8.14121566549
54 18 2 0.4238 4.32710250174 -4.34234621275 9.60536084882
55 19 1 -0.8476 -16.8054961131 7.36482904479 -6.98890400887
56 19 2 0.4238 -16.4803820126 7.93561598403 -7.7428954489
57 19 2 0.4238 -17.6842129555 6.95596534284 -7.23525169849
58 20 1 -0.8476 0.920446454518 3.4182541873 1.96058122996
59 20 2 0.4238 1.40811898519 2.78416011263 1.36049772969
60 20 2 0.4238 1.13500520387 4.35864429515 1.69670438723
61 21 1 -0.8476 7.3403266411 -2.0123980556 9.16001667972
62 21 2 0.4238 6.90190028192 -1.9517564103 10.0567356538
63 21 2 0.4238 6.72953620842 -1.63465581407 8.4641389273
64 22 1 -0.8476 -11.2022430198 16.7566320807 -10.8324475179
65 22 2 0.4238 -11.7688566948 15.9331414156 -10.8039507146
66 22 2 0.4238 -11.6892983693 17.4795550366 -11.3225082146
67 23 1 -0.8476 11.7937641076 -2.56465936545 7.15338142684
68 23 2 0.4238 11.2410277165 -3.30844996753 7.52922450867
69 23 2 0.4238 12.7632205922 -2.79643364361 7.23359868425
70 24 1 -0.8476 -17.2461245827 -0.0840059072713 -1.31507157445
71 24 2 0.4238 -17.7785605695 0.0439042829126 -0.478321370858
72 24 2 0.4238 -16.2705913723 -0.0496478984631 -1.09792074527
73 25 1 -0.8476 -6.90678008929 -9.74036767331 1.4100480889
74 25 2 0.4238 -7.40825685691 -10.2258860582 0.693952460187
75 25 2 0.4238 -6.26590573054 -10.3679018069 1.85218038522
76 26 1 -0.8476 -13.6831892319 -0.0607268843622 0.125005605964
77 26 2 0.4238 -14.0566260541 0.28724041233 0.984926358274
78 26 2 0.4238 -13.0513925777 0.611814745646 -0.260378285214
79 27 1 -0.8476 1.83779198919 -7.27809029288 -1.32272635341
80 27 2 0.4238 1.14573916819 -6.57755686548 -1.14861199434
81 27 2 0.4238 2.50407567791 -7.28101026496 -0.577033709013
82 28 1 -0.8476 -11.7928187144 -2.06881795125 -3.8278067896
83 28 2 0.4238 -12.1380706752 -2.5578857424 -3.02679881261
84 28 2 0.4238 -11.1087326146 -2.631122889 -4.29239194329
85 29 1 -0.8476 -18.8565708463 -5.64503227632 -11.2828552355
86 29 2 0.4238 -19.096815784 -6.58928121173 -11.0577412246
87 29 2 0.4238 -17.9133487464 -5.46541086889 -11.0034483274
88 30 1 -0.8476 -18.5971931764 -3.28383967385 -6.36634602141
89 30 2 0.4238 -17.808327004 -3.39055264441 -5.76111672281
90 30 2 0.4238 -18.4454279481 -3.80428535325 -7.20664573594
91 31 1 -0.8476 -11.6550732281 -2.32008634471 -10.1887640135
92 31 2 0.4238 -11.7823818636 -1.68969016359 -9.42300088685
93 31 2 0.4238 -11.6617283111 -1.80731719971 -11.0472647496
94 32 1 -0.8476 3.58345847138 12.5078852058 10.319542124
95 32 2 0.4238 3.07812098653 12.1666648133 11.1121344972
96 32 2 0.4238 4.37454076089 11.9200503746 10.1503114457
97 33 1 -0.8476 -6.39609556568 15.0220506899 13.1902970321
98 33 2 0.4238 -6.01906616989 15.8074442437 13.6812204481
99 33 2 0.4238 -6.03288543438 14.1774405756 13.583631693
100 34 1 -0.8476 5.77534062626 10.700869988 10.1208157347
101 34 2 0.4238 5.14859009863 10.050712393 9.69130569076
102 34 2 0.4238 6.64869580692 10.2499498619 10.304994366
103 35 1 -0.8476 -5.08575598862 -7.01226939915 0.180501293319
104 35 2 0.4238 -5.69615212193 -7.66504759572 0.629162843406
105 35 2 0.4238 -5.2928044727 -6.98011041031 -0.797300693118
106 36 1 -0.8476 -0.750685525792 4.195014663 3.98069257257
107 36 2 0.4238 -0.422310738056 4.81285453606 4.69514613302
108 36 2 0.4238 0.0295496483798 3.75565138625 3.53550386648
109 37 1 -0.8476 -13.7334917709 0.190619030624 -6.14395645609
110 37 2 0.4238 -14.3695868323 -0.467427878632 -6.54689235437
111 37 2 0.4238 -13.2485540558 -0.238299637083 -5.38181198883
112 38 1 -0.8476 10.9504361217 -7.52643738768 -7.07211493598
113 38 2 0.4238 11.0984775209 -8.47235296937 -6.78344998065
114 38 2 0.4238 11.4195995339 -6.90819730339 -6.44150817196
115 39 1 -0.8476 -21.0132596995 -3.97339501667 -5.77396907843
116 39 2 0.4238 -21.4802350968 -4.29877572516 -6.59619859192
117 39 2 0.4238 -20.1675910681 -3.50700679875 -6.03344276895
118 40 1 -0.8476 -3.08484436535 -11.3524377211 -13.6581671775
119 40 2 0.4238 -3.36181995507 -10.731766896 -12.9246467281
120 40 2 0.4238 -2.10080574712 -11.5202654226 -13.5989906582
121 41 1 -0.8476 -3.42753595502 3.41092856039 4.4700221282
122 41 2 0.4238 -3.55267102624 2.49399799847 4.09110319415
123 41 2 0.4238 -2.46885578668 3.68080084476 4.38001498982
124 42 1 -0.8476 -12.9587232445 -4.38235991937 -8.75075828006
125 42 2 0.4238 -12.6093306255 -3.59837983218 -9.26388596462
126 42 2 0.4238 -13.236979589 -5.10078028699 -9.38828912802
127 43 1 -0.8476 -3.35710555983 8.47385155981 -0.975664521991
128 43 2 0.4238 -3.47369127949 7.79999037253 -0.246062664645
129 43 2 0.4238 -3.16278818043 8.00308497995 -1.83625709885
130 44 1 -0.8476 -10.8649555076 11.5725538851 0.0338957162479
131 44 2 0.4238 -10.1100337766 11.2341318732 -0.527854870684
132 44 2 0.4238 -11.3529939303 10.7986974644 0.437584628688
133 45 1 -0.8476 -7.69267049566 -1.18655342928 -0.045396337681
134 45 2 0.4238 -7.30067500983 -0.8683532743 -0.908581254406
135 45 2 0.4238 -7.00888113864 -1.1083972952 0.680085387751
136 46 1 -0.8476 8.67227939523 -10.5312919073 -10.7644430717
137 46 2 0.4238 9.06312433073 -9.83084855888 -10.1672669234
138 46 2 0.4238 7.71703730738 -10.6880309348 -10.5135537916
139 47 1 -0.8476 5.19100154295 -5.56566832544 6.61889428668
140 47 2 0.4238 5.03355140892 -6.55297748103 6.59815575742
141 47 2 0.4238 5.44471144234 -5.24933024487 5.70480375192
142 48 1 -0.8476 -16.657066802 -5.82712173601 -2.65124859594
143 48 2 0.4238 -15.7044819169 -6.13119163701 -2.64013410138
144 48 2 0.4238 -17.260853979 -6.62363910927 -2.68288905997
145 49 1 -0.8476 -5.27408767552 12.117401801 15.4429342366
146 49 2 0.4238 -6.085536266699995 11.984613622200001 16.01207260593979
147 49 2 0.4238 -4.490695016699995 11.664451827700002 15.868530599039785
148 50 1 -0.8476 11.0909273584 -0.158267303571 6.74715911002
149 50 2 0.4238 11.4480262853 -1.05035085083 7.0240477178
150 50 2 0.4238 11.5760759851 0.156335712581 5.93128182009
151 51 1 -0.8476 -14.0178025963 3.06034899137 -5.49997887597
152 51 2 0.4238 -14.2143813697 3.6463239087 -6.28610239178
153 51 2 0.4238 -14.1322004437 2.10201395367 -5.76171746318
154 52 1 -0.8476 -14.0324482265 15.0715844329 2.39994375399
155 52 2 0.4238 -13.4642254694 14.2856198869 2.64362927031
156 52 2 0.4238 -14.7413473239 14.7835466687 1.75612987087
157 53 1 -0.8476 -9.98208575671 -0.67965996441 -1.47449387157
158 53 2 0.4238 -10.7919112177 -1.24322527281 -1.63751799827
159 53 2 0.4238 -9.54586611816 -0.962192753357 -0.62015924737
160 54 1 -0.8476 -0.627059837045 9.02245518132 -1.10492428561
161 54 2 0.4238 -0.158869597333 9.53460600508 -0.384855238119
162 54 2 0.4238 -1.61513844654 9.14626131294 -1.01342180901
163 55 1 -0.8476 -9.93153407181 13.5963636695 -11.1656771276
164 55 2 0.4238 -9.12764673115 13.3174880001 -11.6910279671
165 55 2 0.4238 -9.8432070071 14.5581810981 -10.9066297115
166 56 1 -0.8476 -13.4014767362 17.1804055564 4.70475281691
167 56 2 0.4238 -13.9512935435 16.4513100485 4.29717310847
168 56 2 0.4238 -12.5594911481 17.2970728844 4.17801853487
169 57 1 -0.8476 -13.5400016565 6.25730971611 -3.82164091138
170 57 2 0.4238 -12.8565981856 5.56289070381 -4.04690060873
171 57 2 0.4238 -14.0049879526 6.00446490619 -2.97319689641
172 58 1 -0.8476 19.0010205172 -1.07954002813 2.32725017656
173 58 2 0.4238 18.6466657874 -1.5258097101 3.14900202253
174 58 2 0.4238 18.7103810733 -1.59096823871 1.51856612264
175 59 1 -0.8476 9.79664503357 0.370301754151 9.21761416571
176 59 2 0.4238 10.2519009536 0.275995136252 8.33226208371
177 59 2 0.4238 9.70141005718 -0.530590214127 9.64108076506
178 60 1 -0.8476 4.80508978174 3.33032800474 -0.272932840512
179 60 2 0.4238 5.78652106043 3.18073929696 -0.152866759935
180 60 2 0.4238 4.65573881163 4.19786346236 -0.747355139211
181 61 1 -0.8476 1.12267339584 7.04961235653 1.25415945537
182 61 2 0.4238 1.0841673318 7.44260155348 2.172895965
183 61 2 0.4238 0.509588319649 7.55701503688 0.648627285024
184 62 1 -0.8476 20.2656349199 -5.9201087876 8.37078929668
185 62 2 0.4238 19.4459499946 -5.38801952886 8.58291577793
186 62 2 0.4238 20.5229991341 -6.46752269683 9.16709430935
187 63 1 -0.8476 20.0310072354 -5.80634663545 5.28883558915
188 63 2 0.4238 20.0422750322 -6.35130604445 6.12722230141
189 63 2 0.4238 20.9407354914 -5.42364018269 5.12780679856
190 64 1 -0.8476 -7.65344630533 -11.6526654886 -3.20277877827
191 64 2 0.4238 -8.176016349 -12.5037254668 -3.25393992591
192 64 2 0.4238 -6.86497126504 -11.7083394077 -3.81532063445
193 65 1 -0.8476 -25.1798286332 11.9594849826 -13.7469639879
194 65 2 0.4238 -25.9013753738 12.6497872969 -13.6935503566
195 65 2 0.4238 -25.0415971949 11.5512988996 -12.8445914534
196 66 1 -0.8476 4.40596060618 -8.36232992299 5.17039128668
197 66 2 0.4238 4.81589124697 -9.27330336518 5.12473761919
198 66 2 0.4238 3.85262325968 -8.2044531367 4.35253267951
199 67 1 -0.8476 -16.1473554341 -4.90565150366 -11.7343058265
200 67 2 0.4238 -15.3003209569 -4.78093819862 -12.2510061129
201 67 2 0.4238 -16.930510355 -4.79247880465 -12.3457470011
202 68 1 -0.8476 -2.61362430923 5.27116261509 1.68350580391
203 68 2 0.4238 -2.05156555756 5.28578519151 0.856537763458
204 68 2 0.4238 -2.0583937092 4.96957873814 2.45859686047
205 69 1 -0.8476 13.6187107201 6.06377880964 11.8984147168
206 69 2 0.4238 12.8436968812 6.57618728629 12.2682675288
207 69 2 0.4238 13.3906346 5.7279818802 10.9845100688
208 70 1 -0.8476 -10.0818358713 -3.69072759428 -8.00492336888
209 70 2 0.4238 -10.9809965435 -3.35431527522 -7.72503618251
210 70 2 0.4238 -10.1018628526 -3.92674231766 -8.97646645612
211 71 1 -0.8476 14.5146079551 6.14554720017 8.98612064149
212 71 2 0.4238 14.9704170692 6.43820482742 9.82670946175
213 71 2 0.4238 15.117902994 5.53263691351 8.47585004996
214 72 1 -0.8476 2.3733807883 1.33855157157 0.827373350916
215 72 2 0.4238 3.17081755775 1.24245085475 0.23167271221
216 72 2 0.4238 2.35346336033 0.582978020987 1.48213430403
217 73 1 -0.8476 -13.0993840156 -16.6811717227 6.35063336467
218 73 2 0.4238 -12.8766853255 -17.1149946944 7.22367570188
219 73 2 0.4238 -13.2161848683 -17.3843158292 5.64924479457
220 74 1 -0.8476 9.57025964487 10.5965539621 -7.52059705752
221 74 2 0.4238 9.50362435855 9.59922541792 -7.5505221912
222 74 2 0.4238 9.6339713834 10.8979571961 -6.56923124728
223 75 1 -0.8476 -1.67049677576 -8.96215680809 -12.5946525902
224 75 2 0.4238 -0.960480414042 -8.73246898472 -13.2603253851
225 75 2 0.4238 -1.88930913654 -8.15365291785 -12.0483535785
226 76 1 -0.8476 -10.3092000613 0.127398128591 -11.150712604
227 76 2 0.4238 -9.85242374682 -0.000778708690855 -10.2704137361
228 76 2 0.4238 -9.63495192279 0.389913632534 -11.8409843316
229 77 1 -0.8476 -13.4666904265 8.08984411398 -6.38748046242
230 77 2 0.4238 -14.3040973695 7.65627384134 -6.05466455161
231 77 2 0.4238 -13.1752377666 8.79329149665 -5.73923889725
232 78 1 -0.8476 14.0080318086 -9.34034683552 -3.65986932193
233 78 2 0.4238 13.8638415099 -8.36008269586 -3.79511492906
234 78 2 0.4238 14.1442134875 -9.52607972522 -2.68675173191
235 79 1 -0.8476 -9.6508572294 2.25853909458 10.4648759399
236 79 2 0.4238 -9.20002599925 1.89726621205 9.64864490261
237 79 2 0.4238 -10.3956614059 2.86760038549 10.1922753482
238 80 1 -0.8476 3.97512766481 7.2765674463 -0.409443992189
239 80 2 0.4238 3.59393055262 7.21922477589 0.513269711954
240 80 2 0.4238 3.2386514641 7.18982895757 -1.08032344512
241 81 1 -0.8476 12.5171591249 -8.5804691587 -0.96436098272
242 81 2 0.4238 12.4529760643 -8.73037363488 0.0222540297087
243 81 2 0.4238 11.6792732421 -8.9018861978 -1.40553933028
244 82 1 -0.8476 -22.0582911105 -3.94448919356 -8.33385675643
245 82 2 0.4238 -21.1810711369 -3.65202345477 -8.71457832063
246 82 2 0.4238 -22.7878153329 -3.7493760343 -8.98939109117
247 83 1 -0.8476 15.8227747949 4.74341916348 11.9489805991
248 83 2 0.4238 15.8900106986 4.00544807619 12.6204551016
249 83 2 0.4238 14.8654084982 5.0127024564 11.844403918
250 84 1 -0.8476 2.86271885705 10.7273919051 1.70620833913
251 84 2 0.4238 2.98927255967 11.3752407796 2.45739140349
252 84 2 0.4238 3.72109795445 10.2438101291 1.53493665133
253 85 1 -0.8476 2.29707231012 -7.24704698566 -4.49142703353
254 85 2 0.4238 2.38859336383 -7.89180206698 -3.73253653956
255 85 2 0.4238 2.48887020183 -6.32083531689 -4.16685729777
256 86 1 -0.8476 -17.795121271 -0.919296573913 -8.60034574149
257 86 2 0.4238 -17.9463812191 -1.58733697514 -7.87175638499
258 86 2 0.4238 -16.8363308235 -0.945946550045 -8.88320729183
259 87 1 -0.8476 -16.3446113618 -4.37476802704 -7.87412242643
260 87 2 0.4238 -15.8761055432 -4.45939186323 -8.75352057536
261 87 2 0.4238 -15.7059179288 -4.58673312097 -7.13443229021
262 88 1 -0.8476 -2.76317888884 5.91366015595 7.40504571306
263 88 2 0.4238 -3.32268065543 6.67148308448 7.06939383657
264 88 2 0.4238 -3.31739162236 5.08223171043 7.44473180609
265 89 1 -0.8476 -9.53471053507 -3.70327856785 -4.76207463332
266 89 2 0.4238 -9.83865569361 -4.43461347861 -5.37262077318
267 89 2 0.4238 -9.42835775184 -2.85654114863 -5.28334695025
268 90 1 -0.8476 11.3347916261 -6.25026448317 -3.00531516097
269 90 2 0.4238 11.7742289763 -5.41874301655 -3.34511931898
270 90 2 0.4238 11.9935466796 -6.78155654409 -2.47261400134
271 91 1 -0.8476 12.2292111295 11.252818567 -5.73903025815
272 91 2 0.4238 13.1073046234 10.7942185621 -5.87555077477
273 91 2 0.4238 12.3622705081 12.2434590234 -5.76947180618
274 92 1 -0.8476 13.9772475775 -3.42627772002 8.64819581546
275 92 2 0.4238 14.4734172948 -2.68716989113 8.19263546948
276 92 2 0.4238 13.7500411669 -3.14926908599 9.58181429412
277 93 1 -0.8476 -0.468876050252 4.93152929525 14.1970297927
278 93 2 0.4238 -0.86724860615 4.15525446342 13.7084638379
279 93 2 0.4238 -0.807236649806 4.9423353916 15.1379842725
280 94 1 -0.8476 16.8492438538 -14.6661731343 15.2413756324
281 94 2 0.4238 16.6184160753 -15.6390915471 15.2291978367
282 94 2 0.4238 16.0299753379 -14.1267730502 15.0468334825
283 95 1 -0.8476 -23.5924752645 -4.15124229102 -13.1865323095
284 95 2 0.4238 -24.1804455369 -4.74820657299 -13.732357011
285 95 2 0.4238 -22.6889442345 -4.56921582841 -13.0920346911
286 96 1 -0.8476 18.7602059374 -8.08635256502 2.57533252409
287 96 2 0.4238 19.288641176200002 -8.78645271047 2.09510759277
288 96 2 0.4238 18.9859420904 -8.10794164235 3.54928175325
289 97 1 -0.8476 -13.7794494882 -14.9242267136 -11.6988710014
290 97 2 0.4238 -13.3093500139 -14.3269756782 -11.049026647
291 97 2 0.4238 -13.3671075762 -15.8348915935 -11.6731100961
292 98 1 -0.8476 20.4447194817 -9.46856848468 8.08082204488
293 98 2 0.4238 20.3857697872 -10.2161988552 8.74231562963
294 98 2 0.4238 21.3921708556 -9.1554600092 8.01525546337
295 99 1 -0.8476 -18.0514099735 10.4095496884 -8.11167677039
296 99 2 0.4238 -18.783794373 10.5194454112 -8.78364107111
297 99 2 0.4238 -17.2709895928 10.9774051732 -8.37337158833
298 100 1 -0.8476 -15.0443626548 -12.0697770696 -0.299945199063
299 100 2 0.4238 -14.1840550447 -11.6917894436 -0.641992228928
300 100 2 0.4238 -14.8543840134 -12.8726772852 0.265085206873

Bonds

1 1 1 2
2 1 1 3
3 1 4 5
4 1 4 6
5 1 7 8
6 1 7 9
7 1 10 11
8 1 10 12
9 1 13 14
10 1 13 15
11 1 16 17
12 1 16 18
13 1 19 20
14 1 19 21
15 1 22 23
16 1 22 24
17 1 25 26
18 1 25 27
19 1 28 29
20 1 28 30
21 1 31 32
22 1 31 33
23 1 34 35
24 1 34 36
25 1 37 38
26 1 37 39
27 1 40 41
28 1 40 42
29 1 43 44
30 1 43 45
31 1 46 47
32 1 46 48
33 1 49 50
34 1 49 51
35 1 52 53
36 1 52 54
37 1 55 56
38 1 55 57
39 1 58 59
40 1 58 60
41 1 61 62
42 1 61 63
43 1 64 65
44 1 64 66
45 1 67 68
46 1 67 69
47 1 70 71
48 1 70 72
49 1 73 74
50 1 73 75
51 1 76 77
52 1 76 78
53 1 79 80
54 1 79 81
55 1 82 83
56 1 82 84
57 1 85 86
58 1 85 87
59 1 88 89
60 1 88 90
61 1 91 92
62 1 91 93
63 1 94 95
64 1 94 96
65 1 97 98
66 1 97 99
67 1 100 101
68 1 100 102
69 1 103 104
70 1 103 105
71 1 106 107
72 1 106 108
73 1 109 110
74 1 109 111
75 1 112 113
76 1 112 114
77 1 115 116
78 1 115 117
79 1 118 119
80 1 118 120
81 1 121 122
82 1 121 123
83 1 124 125
84 1 124 126
85 1 127 128
86 1 127 129
87 1 130 131
88 1 130 132
89 1 133 134
90 1 133 135
91 1 136 137
92 1 136 138
93 1 139 140
94 1 139 141
95 1 142 143
96 1 142 144
97 1 145 146
98 1 145 147
99 1 148 149
100 1 148 150
101 1 151 152
102 1 151 153
103 1 154 155
104 1 154 156
105 1 157 158
106 1 157 159
107 1 160 161
108 1 160 162
109 1 163 164
110 1 163 165
111 1 166 167
112 1 166 168
113 1 169 170
114 1 169 171
115 1 172 173
116 1 172 174
117 1 175 176
118 1 175 177
119 1 178 179
120 1 178 180
121 1 181 182
122 1 181 183
123 1 184 185
124 1 184 186
125 1 187 188
126 1 187 189
127 1 190 191
128 1 190 192
129 1 193 194
130 1 193 195
131 1 196 197
132 1 196 198
133 1 199 200
134 1 199 201
135 1 202 203
136 1 202 204
137 1 205 206
138 1 205 207
139 1 208 209
140 1 208 210
141 1 211 212
142 1 211 213
143 1 214 215
144 1 214 216
145 1 217 218
146 1 217 219
147 1 220 221
148 1 220 222
149 1 223 224
150 1 223 225
151 1 226 227
152 1 226 228
153 1 229 230
154 1 229 231
155 1 232 233
156 1 232 234
157 1 235 236
158 1 235 237
159 1 238 239
160 1 238 240
161 1 241 242
162 1 241 243
163 1 244 245
164 1 244 246
165 1 247 248
166 1 247 249
167 1 250 251
168 1 250 252
169 1 253 254
170 1 253 255
171 1 256 257
172 1 256 258
173 1 259 260
174 1 259 261
175 1 262 263
176 1 262 264
177 1 265 266
178 1 265 267
179 1 268 269
180 1 268 270
181 1 271 272
182 1 271 273
183 1 274 275
184 1 274 276
185 1 277 278
186 1 277 279
187 1 280 281
188 1 280 282
189 1 283 284
190 1 283 285
191 1 286 287
192 1 286 288
193 1 289 290
194 1 289 291
195 1 292 293
196 1 292 294
197 1 295 296
198 1 295 297
199 1 298 299
200 1 298 300

Angles

1 1 2 1 3
2 1 5 4 6
3 1 8 7 9
4 1 11 10 12
5 1 14 13 15
6 1 17 16 18
7 1 20 19 21
8 1 23 22 24
9 1 26 25 27
10 1 29 28 30
11 1 32 31 33
12 1 35 34 36
13 1 38 37 39
14 1 41 40 42
15 1 44 43 45
16 1 47 46 48
17 1 50 49 51
18 1 53 52 54
19 1 56 55 57
20 1 59 58 60
21 1 62 61 63
22 1 65 64 66
23 1 68 67 69
24 1 71 70 72
25 1 74 73 75
26 1 77 76 78
27 1 80 79 81
28 1 83 82 84
29 1 86 85 87
30 1 89 88 90
31 1 92 91 93
32 1 95 94 96
33 1 98 97 99
34 1 101 100 102
35 1 104 103 105
36 1 107 106 108
37 1 110 109 111
38 1 113 112 114
39 1 116 115 117
40 1 119 118 120
41 1 122 121 123
42 1 125 124 126
43 1 128 127 129
44 1 131 130 132
45 1 134 133 135
46 1 137 136 138
47 1 140 139 141
48 1 143 142 144
49 1 146 145 147
50 1 149 148 150
51 1 152 151 153
52 1 155 154 156
53 1 158 157 159
54 1 161 160 162
55 1 164 163 165
56 1 167 166 168
57 1 170 169 171
58 1 173 172 174
59 1 176 175 177
60 1 179 178 180
61 1 182 181 183
62 1 185 184 186
63 1 188 187 189
64 1 191 190 192
65 1 194 193 195
66 1 197 196 198
67 1 200 199 201
68 1 203 202 204
69 1 206 205 207
70 1 209 208 210
71 1 212 211 213
72 1 215 214 216
73 1 218 217 219
74 1 221 220 222
75 1 224 223 225
76 1 227 226 228
77 1 230 229 231
78 1 233 232 234
79 1 236 235 237
80 1 239 238 240
81 1 242 241 243
82 1 245 244 246
83 1 248 247 249
84 1 251 250 252
85 1 254 253 255
86 1 257 256 258
87 1 260 259 261
88 1 263 262 264
89 1 266 265 267
90 1 269 268 270
91 1 272 271 273
92 1 275 274 276
93 1 278 277 279
94 1 281 280 282
95 1 284 283 285
96 1 287 286 288
97 1 290 289 291
98 1 293 292 294
99 1 296 295 297
100 1 299 298 300
