
15 atoms
10 bonds
5 angles

2 atom types
1 bond types
1 angle types

-10 10 xlo xhi
-11 11 ylo yhi
-12 12 zlo zhi

Masses

1 16.0000
2  1.0100

Pair Coeffs

1 0.155394259321224000 3.16555789
2 0 0

Bond Coeffs

1 450.000000 1.0

Angle Coeffs

1   55.000000 109.47

Atoms

1  1 1 -0.8476 -8.7934778 -7.450378 -5.1401551
2  1 2  0.4238 -8.302096 -8.2306671 -4.7532534
3  1 2  0.4238 -8.2817301 -6.6107281 -4.9582152
4  2 1 -0.8476 -8.1233881 0.29306359 -7.6540297
5  2 2  0.4238 -8.2246551 -0.60954019 -7.2356382
6  2 2  0.4238 -8.6730018 0.33730144 -8.4882765
7  3 1 -0.8476  0.095957637 9.7413471 -4.6336793
8  3 2  0.4238  0.86868201 9.7205065 -3.9992798
9  3 2  0.4238  0.26323491 9.1016058 -5.3838455
10 4 1 -0.8476 -6.0182443 -0.48514775 3.537003
11 4 2  0.4238 -5.7547476 0.27304694 4.1334175
12 4 2  0.4238 -6.6985438 -0.1684086 2.8760424
13 5 1 -0.8476  4.2388612 -0.304609 -1.5786226
14 5 2  0.4238  3.766167 -0.42723473 -0.70596973
15 5 2  0.4238  4.6947408 -1.1573847 -1.8334706

Bonds

1 1 1 2
2 1 1 3
3 1 4 5
4 1 4 6
5 1 7 8
6 1 7 9
7 1 10 11
8 1 10 12
9 1 13 14
10 1 13 15

Angles

1 1 2 1 3
2 1 5 4 6
3 1 8 7 9
4 1 11 10 12
5 1 14 13 15

