# LAMMPS data file

1 atoms

1 atom types

0.0000000000000000e+00 3.0000000000000000e+00 xlo xhi
0.0000000000000000e+00 3.0000000000000000e+00 ylo yhi
0.0000000000000000e+00 3.0000000000000000e+00 zlo zhi

Masses

1 1.0

Pair Coeffs

1 1 1 

Atoms

1 1 1 0.0 0 0 0 0 0 0 # atom
