# LAMMPS data file

1 atoms

1 atom types

0.0000000000000000e+00 3.0000000000000000e+00 xlo xhi
0.0000000000000000e+00 3.0000000000000000e+00 ylo yhi
0.0000000000000000e+00 3.0000000000000000e+00 zlo zhi

Masses

1 1.0

Pair Coeffs

1 1 1   #itype eps sig sigref(optional)

Atoms

1 1 1 0.0 0 0 0 0 0 0 # atom

ConfigurationalBias

3 cbmctypes   #number of types of cmbc moves

gcinsdel 1 0.1  #regrow particle in 1 step with a weight of 0.1
1 1 avb 1.3 1.1 1 1       # first step, grow atom 1 with 1 trial (avb2 or avb3 equal weight) in aggregation volume region (rup=1.3 to rlo=1.1) of 1 atoms (atom 1) in molecule

regrow 1 0.1  #regrow particle in 1 step with a weight of 0.1
1 1 avb 1.3 1.1 1 1       # first step, grow atom 1 with 1 trial (avb2 or avb3 equal weight) in aggregation volume region (rup=1.3 to rlo=1.1) of 1 atoms (atom 1) in molecule

regrow 1 0.1  #regrow particle in 1 step with a weight of 0.1
1 1 translate 0.5 # first step, regrow atom 1 with 1 translation trial, initialize maxDisp to 0.5 from original position





