# LAMMPS data file

2 atoms
1 bonds

2 atom types
1 bond types

-1.0 2.51205 xlo xhi
-1.00001 1.0 ylo yhi
-1.00001 1.0 zlo zhi

Masses

1 15.035
2 15.035

Pair Coeffs

1 0.81481707224 3.75
2 0.81481707224 3.75

Bond Coeffs

1 -1 1.51205000007

Atoms

1 1 1 0.000 0.000000 0.000000 0.000000 0 0 0
2 1 2 0.000 1.512050 -0.000010 -0.000010 0 0 0

Bonds

1 1 1   2
