# LAMMPS data file
#  simple model of a monoclonal antibody
#  
#          fc(2) 
#          |
# angle1   |bond 1    angle 2
#          |
#          1(hinge) 
#        /   \
# bond 2/     \ bond 3 
#      /       \
#   fab1(3)  fab2(4) 
#
#         angle 3

4 atoms
3 bonds
3 angles

4 atom types
3 bond types
3 angle types

0.0000000000000000e+00 3.0000000000000000e+00 xlo xhi
0.0000000000000000e+00 3.0000000000000000e+00 ylo yhi
0.0000000000000000e+00 3.0000000000000000e+00 zlo zhi

Masses

1 1.0
2 1.0
3 1.0
4 1.0

Pair Coeffs

1 1 1.61
2 1 6.317
3 1 5.959
4 1 5.959

Bond Coeffs

1 -1 2.8767
2 -1 4.8499
3 -1 5.0661

Angle Coeffs

1 -1 100.21
2 -1 134.18
3 -1 94.32

Atoms

1 1 1 0.0 0 0 0 0 0 0 # equltl1
2 1 2 0.0  1.8550  1.9091 -1.0909 0 0 0 # equltl1
3 1 3 0.0 -0.2016 -3.1858 -3.6512 0 0 0 # equltl1
4 1 4 0.0  0.2993 -3.5573  3.5946 0 0 0 # equltl1

Bonds

1 1 1 2
2 2 1 3
3 3 1 4

Angles

1 1 2 1 3
2 2 2 1 4
3 3 3 1 4

ConfigurationalBias

1 cbmctypes   #number of types of cmbc moves        

gcinsdel 3 1        #regrow entire chain with 3 steps and weight of 1
1 10 box          #first step: grow atom 1 with 10 trials anywhere in box
2 10 bond 1      #second: atom 2 with 10 trials given bond with 1
3 10 branch 4 1 2  #third: atom 3 and 4 simultaneously in branch, 10 trials

