# LAMMPS data file
#
#   2
#   |
#   1 _ 3
#

3 atoms
2 bonds
1 angles

2 atom types
1 bond types
1 angle types

0.0000000000000000e+00 3.0000000000000000e+00 xlo xhi
0.0000000000000000e+00 3.0000000000000000e+00 ylo yhi
0.0000000000000000e+00 3.0000000000000000e+00 zlo zhi

Masses

1 1.0
2 0.0

Pair Coeffs

1 1 1
2 0 0

Bond Coeffs

1 -1 1 #L12 and L13

Angle Coeffs

1 -1 90 #A213

Atoms

1 1 1 0.0 0 0 0 0 0 0 # twoPatch
2 1 2 0.0 1 0 0 0 0 0 # twoPatch
3 1 2 0.0 0 1 0 0 0 0 # twoPatch

Bonds

1 1 1 2
1 1 1 3

Angles

1 1 2 1 3





