# LAMMPS data file
#  7 bead coarse-grained mAb model
#
#             3
#             |
#             2
#             | 
#             1 
#           /   \
#         6       4
#       /           \
#     7               5
#

7 atoms
6 bonds
6 angles

7 atom types
6 bond types
6 angle types

0.0000000000000000e+00 3.0000000000000000e+00 xlo xhi
0.0000000000000000e+00 3.0000000000000000e+00 ylo yhi
0.0000000000000000e+00 3.0000000000000000e+00 zlo zhi

Pair Coeffs

1 1 1.61
2 1 5.32
3 1 4.55
4 1 4.62
5 1 4.41
6 1 4.62
7 1 4.41

Bond Coeffs

1 100 3.070688099 #L32
2 100 3.537929893 #L45
3 100 3.554280096 #L67
4 100 4.882922297 #L31
5 100 6.881131068 #L15
6 100 6.539066860 #L17

Angle Coeffs

1 100 0 #A132
2 100 0 #A154
3 100 0 #A176
4 100 146.2242707 #A315
5 100 119.248531 #A317
6 100 83.03293358 #A517

Atoms

1 1 1 0 0 0 0 0 0 0
2 1 2 0 0.669284  -0.490219 1.611191  0 0 0
3 1 3 0 1.803332  -1.320858 4.341227  0 0 0
4 1 4 0 -2.727185 0.245549  -1.918115 0 0 0
5 1 5 0 -5.613217 0.505399  -3.947953 0 0 0
6 1 6 0 0.519979  2.757457  -1.017354 0 0 0
7 1 7 0 1.13917 6.041032  -2.228816 0 0 0

Bonds

1 1 3 2
2 2 4 5
3 3 6 7
4 4 3 1 
5 5 1 5
6 6 1 7

Angles

1 1 1 3 2
2 2 1 5 4
3 3 1 7 6
4 4 3 1 5
5 5 3 1 7
6 6 5 1 7

ConfigurationalBias

1 cbmctypes

gcinsdel 6 1
1 10 box
3 10 bond 1
2 1  angle 3 1
5 10 branch 7 1 3
4 1 angle 5 1
6 1 angle 7 1





