# LAMMPS data file
#  TRAPPE propane 2015
#  from http://www.chem.umn.edu/groups/siepmann/trappe/molname.php
#  M.G. Martin, and J.I. Siepmann,
#  Transferable potentials for phase equilibria. 1. United-atom description of n-alkanes,
#  J. Phys. Chem. B, 102, 2569-2577 (1998).
#  
#   CH3 - CH2 - CH3
#   (2) - (1) - (3)
 
3 atoms
2 bonds
1 angles

2 atom types
1 bond types
1 angle types

0.0000000000000000e+00 3.0000000000000000e+00 xlo xhi
0.0000000000000000e+00 3.0000000000000000e+00 ylo yhi
0.0000000000000000e+00 3.0000000000000000e+00 zlo zhi

Masses

1 1.0

Pair Coeffs

1 46 3.95
2 98 3.75

Bond Coeffs

1 -1 1.54    # bond type 1, k=rigid, l0, U=k*(l-l0)^2 

Angle Coeffs

1 62500 114     # angle type 1, k, t0 degrees, U=k*(t-t0)^2

Atoms

1 1 1 0.0 0 0 0 0 0 0 # equltl1
2 1 2 0.0 -1.54 0 0 0 0 0 # equltl1
3 1 2 0.0  0.626374430336733000 1.406860004769610000 0 0 0 0 # equltl1

Bonds

1 1 1 2
2 1 1 3

Angles

1 1 2 1 3

