# LAMMPS data file
#  7 bead coarse-grained mAb model
#
#Wick, (email from Marco, 12/8/15)
#
#This set of coordinates (below) correspond to the bead positions based on the other crystal structure (pdb ID: 1IGT).
#
# x [nm]  y [nm]  z [nm]  sigma [nm]
# Hinge   0.00000000  0.00000000  0.00000000  1.52
# H1  0.38370924  -0.27543393   -2.93884982   5.3283
# H2  1.88944709  -2.28230144   -4.78259695   4.5405
# V1.1  -0.20018689   -6.22249817   4.10258205  4.6319
# V2.1  -1.13469610   -3.19449097   2.39971875  4.4130
# V1.2  -4.13100713   4.62278921  -1.22550756   4.6319
# V2.2  -2.75015812   1.97783376  0.47737548  4.4130
#
#Hinge -> 1
#H1 -> 2
#H2 -> 3
#V1.1 -> 7
#V2.1 -> 6
#V1.2 -> 5
#V2.2 -> 4
#
#             3
#             |
#             2
#             | 
#             1 
#           /   \
#         4       6
#       /           \
#     5               7
#

7 atoms
6 bonds
6 angles

7 atom types
6 bond types
6 angle types

0.0000000000000000e+00 3.0000000000000000e+00 xlo xhi
0.0000000000000000e+00 3.0000000000000000e+00 ylo yhi
0.0000000000000000e+00 3.0000000000000000e+00 zlo zhi

Pair Coeffs

1 1 1.52
2 1 5.3283
3 1 4.5405
4 1 4.4130
5 1 4.6319
6 1 4.4130
7 1 4.6319

Bond Coeffs

1 -1 2.976564682686740000 #L12
2 -1 3.420977244392310000 #L14
3 -1 4.153427227510910000 #L16
4 -1 3.113545752835420000 #L32
5 -1 3.435453968374820000 #L45
6 -1 3.597482242529290000 #L67

Angle Coeffs

1 80 180 #A123
2 80 180 #A145
3 80 180 #A167
4 80 120 #A214
5 80 120 #A216
6 80 120 #A416

Atoms

1 1 1 0 0 0 0 0 0 0
2 1 2 0 2.314176  -1.490841 -1.132219 0 0 0
3 1 3 0 4.73485 -3.050289 -2.316544 0 0 0
4 1 4 0 -2.823455 -1.754021 -0.809072 0 0 0
5 1 5 0 -5.658858 -3.515464 -1.621568 0 0 0
6 1 6 0 -0.646072 0.323239  4.090118 0 0 0
7 1 7 0 -1.205667 0.603212  7.632765 0 0 0

Bonds

1 1 1 2
2 2 1 4
3 3 1 6
4 4 2 3 
5 5 4 5
6 6 6 7

Angles

1 1 1 2 3
2 2 1 4 5
3 3 1 6 7
4 4 2 1 4
5 5 2 1 6
6 6 4 1 6

ConfigurationalBias

7 cbmctypes

gcinsdel 6 1
1 10 box
2 10 bond 1
3 10  angle 2 1
4 10 branch 6 1 2
5 10 angle 4 1
7 10 angle 6 1

regrow 3 0.33333333333333333333333333
4 10 branch 6 1 2
5 10 angle 4 1
7 10 angle 6 1

regrow 3 0.33333333333333333333333333
2 10 branch 6 1 4
3 10 angle 2 1
7 10 angle 6 1

regrow 3 0.33333333333333333333333333
2 10 branch 4 1 6
3 10 angle 2 1
5 10 angle 4 1

regrow 2 0.33333333333333333333333333
5 10 angle 4 1
7 10 angle 6 1

regrow 2 0.33333333333333333333333333
3 10 angle 2 1
7 10 angle 6 1

regrow 2 0.33333333333333333333333333
3 10 angle 2 1
5 10 angle 4 1










