# LAMMPS data file
#  linear 2 bead coarse-grained model with 2 linear patches
#
#  2(p) - (1/3) - 4(patch unit vector, p)
#
# Note: beads 1 and 3 are the same

4 atoms
2 bonds

2 atom types
1 bond types

0.0000000000000000e+00 3.0000000000000000e+00 xlo xhi
0.0000000000000000e+00 3.0000000000000000e+00 ylo yhi
0.0000000000000000e+00 3.0000000000000000e+00 zlo zhi

Pair Coeffs

1 1 1
2 1 0

Bond Coeffs

1 -1 1.0

Atoms

1 1 1 0.0 0 0.0 0 0 0 0
2 1 2 0.0 0 -1.0 0 0 0 0
3 1 1 0.0 0 0.0 0 0 0 0
4 1 2 0.0 0 1.0 0 0 0 0

Bonds

1 1 1 2
2 1 3 4

