# LAMMPS data file
#  triangle with two sidelengths l and angle theta between them
#  in this case, l=1, theta=60
#  r1 = origin as pivot
#  r2 = 0, 2/3 l * cos(theta/2)
#  r3 = lsin(theta/2), -l/3 cos(theta/2)
#  r4 = -lsin(theta/2), -l/3 cos(theta/2)

3 atoms
2 bonds
1 angles

2 atom types
1 bond types
1 angle types

0.0000000000000000e+00 3.0000000000000000e+00 xlo xhi
0.0000000000000000e+00 3.0000000000000000e+00 ylo yhi
0.0000000000000000e+00 3.0000000000000000e+00 zlo zhi

Masses

1 1.0

Pair Coeffs

1 1 1
2 1 1

Bond Coeffs

1 100 1.0    # bond type 1, k=100, l0=1, U=k*(l-l0)^2

Angle Coeffs

1 100 60     # angle type 1, k=100, t0=60 degrees, U=k*(t-t0)^2

Atoms

1 1 1 0.0 0 0 0 0 0 0 # equltl1
2 1 2 0.0  0.5 -0.866025403784439000 0 0 0 0 # equltl1
3 1 2 0.0 -0.5 -0.866025403784439000 0 0 0 0 # equltl1

Bonds

1 1 1 2
2 1 1 3

Angles

1 1 2 1 3

ConfigurationalBias

7 cbmctypes

gcinsdel 3 1
2 10 box
1 1 bond 2
3 10 angle 1 2

gcinsdel 3 1
1 10 avb 1.5 1 1 2
2 1 bond 1
3 10 angle 1 2

regrow 2 0.16666666666666666666
2 10 bond 1
3 10 angle 1 2

regrow 2 0.16666666666666666666
1 1 bond 2
3 10 angle 1 2

regrow 2 0.16666666666666666666
1 1 bond 3
2 10 angle 1 3

regrow 1 0.25
3 1 angle 1 2

regrow 1 0.25
2 1 angle 1 3


