# LAMMPS data file
#  tetramer with sites forming tetrahedron of side length l, with one LJ bead
#  in this case, L = 0.45
#  r1 = origin as pivot
#  r2/3 = +/-0.5L, 0, -L/(2 sqrt(2))
#  r4/5 = 0, +/-0.5L, L/(2 sqrt(2))
#

5 atoms

3 atom types

0.0000000000000000e+00 3.0000000000000000e+00 xlo xhi
0.0000000000000000e+00 3.0000000000000000e+00 ylo yhi
0.0000000000000000e+00 3.0000000000000000e+00 zlo zhi

Masses

1 1.0

Pair Coeffs

1 0 0
2 1 1
3 1 1

Atoms

1 1 1 0.0 0 0 0 0 0 0 # equltl1
2 1 2 0.0  0.225 0 -0.159099025766973000 0 0 0 # equltl1
3 1 3 0.0 -0.225 0 -0.159099025766973000 0 0 0 # equltl1
4 1 3 0.0 0  0.225  0.159099025766973000 0 0 0 # equltl1
5 1 3 0.0 0 -0.225  0.159099025766973000 0 0 0 # equltl1







