# LAMMPS data file
#  Equilateral triangle of sidelength l=3sqrt(3)/4
#   r1 = 0, l/sqrt(3), 0
#   r2 = l/2, -l/2/sqrt(3), 0
#   r3 = -l/2, -l/2/sqrt(3), 0

4 atoms
1 bonds

2 atom types
1 bond types

0.0000000000000000e+00 3.0000000000000000e+00 xlo xhi
0.0000000000000000e+00 3.0000000000000000e+00 ylo yhi
0.0000000000000000e+00 3.0000000000000000e+00 zlo zhi

Masses

1 1.0

Pair Coeffs

1 0 0
2 1 1

Atoms

1 1 1 0.0 0 0 0 0 0 0 # eqult3sqr34
2 1 2 0.0 0 0.75 0 0 0 0 # eqult3sqr34
3 1 2 0.0  0.649519052838329000 -0.375 0 0 0 0 # eqult3sqr34
4 1 2 0.0 -0.649519052838329000 -0.375 0 0 0 0 # eqult3sqr34







