# LAMMPS data file
#  4 bead coarse-grained model with 3 patches
#
#
#             3(patch unit vector, p)
#             |
#             2
#             |
#             1
#           /   \
#         4       6
#       /           \
#     5(p)            7(p)
#

7 atoms

3 atom types

0.0000000000000000e+00 3.0000000000000000e+00 xlo xhi
0.0000000000000000e+00 3.0000000000000000e+00 ylo yhi
0.0000000000000000e+00 3.0000000000000000e+00 zlo zhi

Pair Coeffs

1 1 1
2 1 1
3 1 0

Atoms

1 1 1 0 0 0 0 0 0 0
2 1 2 0.0 0 1.0 0 0 0 0
3 1 3 0.0 0 2.0 0 0 0 0
4 1 2 0.0 -0.866025403784439000 -0.5 0 0 0 0
5 1 3 0.0 -1.732050807568880000 -1.0 0 0 0 0
6 1 2 0.0  0.866025403784439000 -0.5 0 0 0 0
7 1 3 0.0  1.732050807568880000 -1.0 0 0 0 0

