# LAMMPS data file
#
#  O(2) -- C(1) -- O(3)
#

3 atoms
2 bonds
1 angles

2 atom types
1 bond types
1 angle types

0.0000000000000000e+00 3.0000000000000000e+00 xlo xhi
0.0000000000000000e+00 3.0000000000000000e+00 ylo yhi
0.0000000000000000e+00 3.0000000000000000e+00 zlo zhi

Masses

1 12.01070
2 15.99990

Pair Coeffs

1 0.224490417862045000 2.8000
2 0.656842333744501000 3.0500

Bond Coeffs

1 -1 1.160

Angle Coeffs

1 -1 180.0

Atoms

1 1 1  0.7000  0.000 0.000 0.000 0 0 0 #carbon
2 1 2 -0.3500  1.160 0.000 0.000 0 0 0 #oxygen
3 1 2 -0.3500 -1.160 0.000 0.000 0 0 0 #oxygen

Bonds

1 1 1 2
2 1 1 3

Angles

1 1 2 1 3

VMD Labels

1 C
2 O
