# LAMMPS data file
#  linear 3 bead coarse-grained model with 2 linear patches
#
#  3(p) - 2 - 1 - 4 - 5(patch unit vector, p)
#

5 atoms

3 atom types

0.0000000000000000e+00 3.0000000000000000e+00 xlo xhi
0.0000000000000000e+00 3.0000000000000000e+00 ylo yhi
0.0000000000000000e+00 3.0000000000000000e+00 zlo zhi

Pair Coeffs

1 1 1
2 1 1
3 1 0

Atoms

1 1 1 0 0 0 0 0 0 0
2 1 2 0.0 0 -1.0 0 0 0 0
3 1 3 0.0 0 -2.0 0 0 0 0
4 1 2 0.0 0 1.0 0 0 0 0
5 1 3 0.0 0 2.0 0 0 0 0

