# LAMMPS data file
#  7 bead coarse-grained mAb model
#
#Wick, (email from Marco, 12/8/15)
#
#This set of coordinates (below) correspond to the bead positions based on the other crystal structure (pdb ID: 1IGT).
#
# x [nm]  y [nm]  z [nm]  sigma [nm]
# Hinge   0.00000000  0.00000000  0.00000000  1.52
# H1  0.38370924  -0.27543393   -2.93884982   5.3283
# H2  1.88944709  -2.28230144   -4.78259695   4.5405
# V1.1  -0.20018689   -6.22249817   4.10258205  4.6319
# V2.1  -1.13469610   -3.19449097   2.39971875  4.4130
# V1.2  -4.13100713   4.62278921  -1.22550756   4.6319
# V2.2  -2.75015812   1.97783376  0.47737548  4.4130
#
#Hinge -> 1
#H1 -> 2
#H2 -> 3
#V1.1 -> 7
#V2.1 -> 6
#V1.2 -> 5
#V2.2 -> 4
#
#             3
#             |
#             2
#             |
#             1
#           /   \
#         4       6
#       /           \
#     5               7
#

7 atoms
6 bonds
6 angles

7 atom types
6 bond types
6 angle types

0.0000000000000000e+00 3.0000000000000000e+00 xlo xhi
0.0000000000000000e+00 3.0000000000000000e+00 ylo yhi
0.0000000000000000e+00 3.0000000000000000e+00 zlo zhi

Pair Coeffs

1 1 1.52
2 1 5.3283
3 1 4.5405
4 1 4.4130
5 1 4.6319
6 1 4.4130
7 1 4.6319

Bond Coeffs

1 -1 3.113545752835420000 #L32
2 -1 3.435453968374820000 #L45
3 -1 3.597482242529290000 #L67
4 -1 6.090110029845180000 #L31
5 -1 6.856430936450300000 #L15
6 -1 7.750909487091100000 #L17

Angle Coeffs

1 -1 0 #A132
2 -1 0 #A154
3 -1 0 #A176
4 -1 120.0 #A315
5 -1 120.0 #A317
6 -1 120.0 #A517

Atoms

1 1 1 0 0 0 0 0 0 0
2 1 2 0 -0.906714 -2.829756 0.174039 0 0 0
3 1 3 0 -1.855155 -5.789736 0.356087 0 0 0
4 1 4 0 -1.291753 2.344171  2.130568 0 0 0
5 1 5 0 -2.588972 4.698262  4.270153 0 0 0
6 1 6 0 2.833531  1.102502  -2.829584 0 0 0
7 1 7 0 5.287789  2.057432  -5.280422 0 0 0

Bonds

1 1 3 2
2 2 4 5
3 3 6 7
4 4 3 1
5 5 1 5
6 6 1 7

Angles

1 1 1 3 2
2 2 1 5 4
3 3 1 7 6
4 4 3 1 5
5 5 3 1 7
6 6 5 1 7

ConfigurationalBias

4 cbmctypes

gcinsdel 6 1
1 10 box
3 10 bond 1
2 1  angle 3 1
5 10 branch 7 1 3
4 1 angle 5 1
6 1 angle 7 1

regrow 3 0.33333333333333333333333333
5 10 branch 7 1 3
4 1 angle 5 1
6 1 angle 7 1

regrow 3 0.33333333333333333333333333
3 10 branch 7 1 5
2 1 angle 3 1
6 1 angle 7 1

regrow 3 0.33333333333333333333333333
3 10 branch 5 1 7
2 1 angle 3 1
4 1 angle 5 1






