# LAMMPS data file

3 atoms
2 bonds
1 angles

2 atom types
1 bond types
1 angle types

0.0000000000000000e+00 3.0000000000000000e+00 xlo xhi
0.0000000000000000e+00 3.0000000000000000e+00 ylo yhi
0.0000000000000000e+00 3.0000000000000000e+00 zlo zhi

Masses

1 1.008
2 15.999

Pair Coeffs

1 0.650169581 3.16555789
2 0 0

Bond Coeffs

1 450 1.0

Angle Coeffs

1 55 109.47

Atoms

1 1 1 -0.8476 0.0000000000000000e+00 0.0000000000000000e+00 0.0000000000000000e+00 0 0 0 # water
2 1 2 0.4238 1.0 0 0 0 0 0 # water
3 1 2 0.4238 -0.333313247568237000 0.942816142731718000 0 0 0 0 #water

Velocities

1 1.7907926998991818e-04 8.1601411216335635e-05 1.7353064116075270e-06
2 -1.5402122944996294e-04 1.5988390869621979e-04 -1.5577280458118692e-04
3 -2.5058040539955198e-05 -2.4148531991255537e-04 1.5403749816957942e-04

Bonds

1 1 1 2
2 1 1 3

Angles

1 1 2 1 3





