# LAMMPS data file
#  TRAPPE isobutane (2-methylpropane) 2015
#  from http://www.chem.umn.edu/groups/siepmann/trappe/molname.php
#  M.G. Martin, and J.I. Siepmann,
#  Novel configurational-bias Monte Carlo method for branched molecules. Transferable potentials for phase equilibria. 2. United-atom description of branched alkanes,
#  J. Phys. Chem. B, 103, 4508-4517 (1999).
#  
#         CH3(2)
#          |
#         CH(1)
#        /  \
#   (3)CH3  CH3(4)
 
4 atoms
3 bonds
3 angles

2 atom types
1 bond types
1 angle types

0.0000000000000000e+00 3.0000000000000000e+00 xlo xhi
0.0000000000000000e+00 3.0000000000000000e+00 ylo yhi
0.0000000000000000e+00 3.0000000000000000e+00 zlo zhi

Masses

1 1.0

Pair Coeffs

1 10 4.68
2 98 3.75

Bond Coeffs

1 -1 1.54    # bond type 1, k=rigid, l0, U=k*(l-l0)^2 

Angle Coeffs

1 62500 112     # angle type 1, k, t0 degrees, U=k*(t-t0)^2

Atoms

1 1 1 0.0 0 0 0 0 0 0 # equltl1
2 1 2 0.0 0 1.54 0 0 0 0 # equltl1
3 1 2 0.0 -1.427863136032850000 -0.576894153860505000 0 0 0 0 # equltl1
4 1 2 0.0  0.855280755476768000 -0.576894153860505000 1.143366942216130000 0 0 0 # equltl1

Bonds

1 1 1 2
2 1 1 3
3 1 1 4

Angles

1 1 2 1 3
2 1 2 1 4
3 1 3 1 4

ConfigurationalBias

7 cbmctypes   #number of types of cmbc moves        

gcinsdel 3 1        #regrow entire chain with 3 steps and weight of 1
1 10 box          #first step: grow atom 1 with 10 trials anywhere in box
2 10 bond 1      #second: atom 2 with 10 trials given bond with 1
3 10 branch 4 1 2  #third: atom 3 and 4 simultaneously in branch

regrow 2 0.16666666666666666666
2 10 bond 1
3 10 branch 4 1 2

regrow 2 0.16666666666666666666
3 10 bond 1
2 10 branch 4 1 3

regrow 2 0.16666666666666666666
4 10 bond 1
3 10 branch 2 1 4

regrow 1 0.16666666666666666666
3 10 branch 4 1 2

regrow 1 0.16666666666666666666
3 10 branch 2 1 4

regrow 1 0.16666666666666666666
2 10 branch 4 1 3


