# LAMMPS data file
#
#     H(2)
#    / bond 1
#   O(1)
#   | bond 2
#   Si(3)
#

3 atoms
2 bonds
1 angles

3 atom types
2 bond types
1 angle types

0.0000000000000000e+00 3.0000000000000000e+00 xlo xhi
0.0000000000000000e+00 3.0000000000000000e+00 ylo yhi
0.0000000000000000e+00 3.0000000000000000e+00 zlo zhi

Masses

2 15.999
1 1.008
3 28.0855

Pair Coeffs

1 0.650169581 3.16555789
2 0 0
3 0.1 4.0

Bond Coeffs

1 -1 1.0  # O-H
2 -1 1.0  # O-Si

Angle Coeffs

1 -1 120  # Rigid H-O-Si bond angle

Atoms

1 1 1 -0.2 0.0 0.0 0.0 0 0 0
2 1 2 0.2 0.866025403784439000 0.0 0.5 0.0 0 0 0
3 1 3 0.0 0.0 0.0 -1.0 0 0 0

Bonds

1 1 1 2
2 1 1 3

Angles

1 1 2 1 3

VMD Labels

1 O
2 H
3 Si

ConfigurationalBias

1 cbmctypes   # number of types of cmbc moves

regrow 1 1    # regrow the hydrogen with 1 step and weight of 1
2 1 angle 1 3 # regrow atom 1 with 5 trials given angle 1-2-3


