# LAMMPS data file

2 atoms

2 atom types

0.0000000000000000e+00 3.0000000000000000e+00 xlo xhi
0.0000000000000000e+00 3.0000000000000000e+00 ylo yhi
0.0000000000000000e+00 3.0000000000000000e+00 zlo zhi

Masses

1 1.0
2 0.0

Pair Coeffs

1 1 1
2 0 0

Bond Coeffs

1 450 1.0

Atoms

1 1 1 0.0 0 0 0 0 0 0 # onePatch
2 1 2 0.0 1 0 0 0 0 0 # onePatch







