# LAMMPS data file
#  triangle with two sidelengths l and angle theta between them
#  in this case, l=4/3, theta=60
#  r1 = origin as pivot
#  r2 = 0, 2/3 l * cos(theta/2)
#  r3 = lsin(theta/2), -l/3 cos(theta/2)
#  r4 = -lsin(theta/2), -l/3 cos(theta/2)

4 atoms

3 atom types

0.0000000000000000e+00 3.0000000000000000e+00 xlo xhi
0.0000000000000000e+00 3.0000000000000000e+00 ylo yhi
0.0000000000000000e+00 3.0000000000000000e+00 zlo zhi

Masses

1 1.0

Pair Coeffs

1 0 0
2 1 1
3 1 1

Atoms

1 1 1 0.0 0 0 0 0 0 0 # equltl43
2 1 2 0.0 0 0.769800358919501000 0 0 0 0 # equltl43
3 1 3 0.0  0.666666666666666666 -0.384900179459751000 0 0 0 0 # equltl43
4 1 3 0.0 -0.666666666666666666 -0.384900179459751000 0 0 0 0 # equltl43







