# LAMMPS data file
#  Equilateral triangle of sidelength l=4/3
#   r1 = 0, l/sqrt(3), 0
#   r2 = l/2, -l/2/sqrt(3), 0
#   r3 = -l/2, -l/2/sqrt(3), 0

4 atoms

2 atom types

0.0000000000000000e+00 3.0000000000000000e+00 xlo xhi
0.0000000000000000e+00 3.0000000000000000e+00 ylo yhi
0.0000000000000000e+00 3.0000000000000000e+00 zlo zhi

Masses

1 1.0

Pair Coeffs

1 0 0
2 1 1

Atoms

1 1 1 0.0 0 0 0 0 0 0 # equltl43
2 1 2 0.0 0 0.769800358919501000 0 0 0 0 # equltl43
3 1 2 0.0  0.666666666666666666 -0.384900179459751000 0 0 0 0 # equltl43
4 1 2 0.0 -0.666666666666666666 -0.384900179459751000 0 0 0 0 # equltl43







