# LAMMPS data file
#
#        O(1)
#      /   \
#    /       \
#  H(2)        H(3)

3 atoms

2 atom types

0.0000000000000000e+00 3.0000000000000000e+00 xlo xhi
0.0000000000000000e+00 3.0000000000000000e+00 ylo yhi
0.0000000000000000e+00 3.0000000000000000e+00 zlo zhi

Masses

1 15.999
2 1.008

Pair Coeffs

1 0.636271735 3.15065611
2 0 0

Atoms

1 1 1 -0.834 0.0000000000000000e+00 0.0000000000000000e+00 0.0000000000000000e+00 0 0 0 # water O
2 1 2 0.417 -0.756950327263661000 -0.585882276618295000 0.0 0 0 0 # water H
3 1 2 0.417  0.756950327263661000 -0.585882276618295000 0.0 0 0 0 # water H

