# LAMMPS data file
#  7 bead coarse-grained mAb model
#
#             1
#             |
#             2
#             |
#             3
#           /   \
#         6       4
#       /           \
#     7               5
#

7 atoms
6 bonds
6 angles

7 atom types
6 bond types
6 angle types

0.0000000000000000e+00 3.0000000000000000e+00 xlo xhi
0.0000000000000000e+00 3.0000000000000000e+00 ylo yhi
0.0000000000000000e+00 3.0000000000000000e+00 zlo zhi

Pair Coeffs

1 1 1
2 1 1
3 1 1
4 1 1
5 1 1
6 1 1
7 1 1

Bond Coeffs

1 100 1.0 #L12
2 100 1.0 #L45
3 100 1.0 #L67
4 100 2.0 #L13
5 100 2.0 #L35
6 100 2.0 #L37

Angle Coeffs

1 100 0 #A312
2 100 0 #A354
3 100 0 #A376
4 100 110 #A135
5 100 110 #A137
6 100 110 #A537

Atoms

1 1 1 0.0 0 0 0 0 0 0
2 1 2 0.0 0 0 0 0 0 0
3 1 3 0.0 0 0 0 0 0 0
4 1 4 0.0 0 0 0 0 0 0
5 1 5 0.0 0 0 0 0 0 0
6 1 6 0.0 0 0 0 0 0 0
7 1 7 0.0 0 0 0 0 0 0

Bonds

1 1 1 2
2 2 4 5
3 3 6 7
4 4 1 3
5 5 3 5
6 6 3 7

Angles

1 1 3 1 2
2 2 3 5 4
3 3 3 7 6
4 4 1 3 5
5 5 1 3 7
6 6 5 3 7

ConfigurationalBias

1 cbmctypes

gcinsdel 6 1
3 10 box
1 10 bond 3
2 1  angle 1 3
5 10 branch 7 3 1
4 1 angle 5 3
6 1 angle 7 3





