# LAMMPS data file

3 atoms
2 bonds
1 angles

2 atom types
1 bond types
1 angle types

0.0000000000000000e+00 3.0000000000000000e+00 xlo xhi
0.0000000000000000e+00 3.0000000000000000e+00 ylo yhi
0.0000000000000000e+00 3.0000000000000000e+00 zlo zhi

Pair Coeffs

1 0.650169581 3.16555789
2 0 0

Bond Coeffs

1 450 1.0

Angle Coeffs

1 55 109.47

Atoms

1 1 1 -0.8476 0.0000000000000000e+00 0.0000000000000000e+00 0.0000000000000000e+00 0 0 0 # water
2 1 2 0.4238 1.0 0 0 0 0 0 # water
3 1 2 0.4238 -0.333313247568237000 0.942816142731718000 0 0 0 0 #water

Bonds

1 1 1 2
2 1 1 3

Angles

1 1 2 1 3

VMD Labels

1 O
2 H





