# LAMMPS data file
#
#        O(1)
#      / | \
#    /   M(2)\
#  H(3)        H(4)

4 atoms

3 atom types

0.0000000000000000e+00 3.0000000000000000e+00 xlo xhi
0.0000000000000000e+00 3.0000000000000000e+00 ylo yhi
0.0000000000000000e+00 3.0000000000000000e+00 zlo zhi

Masses

1 15.999
2 0.0
3 1.008

Pair Coeffs

1 0.77490787 3.1589
2 0 0
3 0 0

Atoms

1 1 1 0.0 0.0000000000000000e+00 0.0000000000000000e+00 0.0000000000000000e+00 0 0 0 # water O
2 1 2 -1.1128 0.0 -0.1546 0.0 0 0 0 # water M
3 1 3 0.5564 -0.756950327263661000 -0.585882276618295000 0.0 0 0 0 # water H
4 1 3 0.5564  0.756950327263661000 -0.585882276618295000 0.0 0 0 0 # water H

Velocities

1 1.7907926998991818e-04 8.1601411216335635e-05 1.7353064116075270e-06
2 -1.5402122944996294e-04 1.5988390869621979e-04 -1.5577280458118692e-04
3 -2.5058040539955198e-05 -2.4148531991255537e-04 1.5403749816957942e-04
4 -2.5058040539955198e-05 -2.4148531991255537e-04 1.5403749816957942e-04






