# LAMMPS data file
#
#        O(1)
#      / | \
#    /   M(2)\
#  H(3)        H(4)

4 atoms

3 atom types

0.0000000000000000e+00 3.0000000000000000e+00 xlo xhi
0.0000000000000000e+00 3.0000000000000000e+00 ylo yhi
0.0000000000000000e+00 3.0000000000000000e+00 zlo zhi

Masses

1 15.999
2 0.0
3 1.008

Pair Coeffs

1 0.648694333 3.153577942
2 0 0
3 0 0

Atoms

1 1 1 0.0 0.0000000000000000e+00 0.0000000000000000e+00 0.0000000000000000e+00 0 0 0 # water O
2 1 2 -1.04 0.0 -0.15 0.0 0 0 0 # water M
3 1 3 0.52 -0.756950327263661000 -0.585882276618295000 0.0 0 0 0 # water H
4 1 3 0.52  0.756950327263661000 -0.585882276618295000 0.0 0 0 0 # water H

